<?xml version="1.0" encoding="UTF-8"?>

<!-- generated on 2022-07-25 17:32:02 by Eclipse SUMO GUI Version 1.14.0
<configuration xmlns:xsi="http://www.w3.org/2001/XMLSchema-instance" xsi:noNamespaceSchemaLocation="http://sumo.dlr.de/xsd/sumoConfiguration.xsd">

    <input>
        <net-file value="C:/Users/mnity/Desktop/quick_adap_to_incidents/Experiment/traci_exp.net.xml"/>
        <route-files value="C:/Users/mnity/Desktop/quick_adap_to_incidents/Experiment/traci_exp.rou.xml"/>
        <additional-files value="C:/Users/mnity/Desktop/quick_adap_to_incidents/Experiment/traci_exp.add.xml"/>
    </input>

    <output>
        <tripinfo-output value="tripinfo.xml"/>
    </output>

    <time>
        <begin value="0"/>
        <end value="86400"/>
    </time>

    <traci_server>
        <remote-port value="57392"/>
    </traci_server>

</configuration>
-->

<meandata xmlns:xsi="http://www.w3.org/2001/XMLSchema-instance" xsi:noNamespaceSchemaLocation="http://sumo.dlr.de/xsd/meandata_file.xsd">
    <interval begin="0.00" end="60.00" id="ed">
        <edge id="E0" sampledSeconds="595.53" traveltime="26.25" overlapTraveltime="26.96" density="66.04" laneDensity="22.01" occupancy="10.91" waitingTime="2.00" timeLoss="251.68" speed="5.76" speedRelative="0.41" departed="30" arrived="0" entered="0" left="17" laneChangedFrom="58" laneChangedTo="58"/>
        <edge id="E1" sampledSeconds="253.17" traveltime="23.48" overlapTraveltime="24.13" density="23.85" laneDensity="7.95" occupancy="3.86" waitingTime="0.00" timeLoss="62.03" speed="7.54" speedRelative="0.54" departed="0" arrived="0" entered="17" left="6" laneChangedFrom="29" laneChangedTo="29"/>
        <edge id="E10" sampledSeconds="0.00" departed="0" arrived="0" entered="0" left="0" laneChangedFrom="0" laneChangedTo="0"/>
        <edge id="E11" sampledSeconds="0.00" departed="0" arrived="0" entered="0" left="0" laneChangedFrom="0" laneChangedTo="0"/>
        <edge id="E2" sampledSeconds="44.02" traveltime="10.39" overlapTraveltime="11.41" density="9.39" laneDensity="3.13" occupancy="1.49" waitingTime="0.00" timeLoss="10.55" speed="7.29" speedRelative="0.52" departed="0" arrived="0" entered="6" left="3" laneChangedFrom="1" laneChangedTo="1"/>
        <edge id="E3" sampledSeconds="5.74" traveltime="7.99" overlapTraveltime="8.66" density="1.61" laneDensity="0.54" occupancy="0.25" waitingTime="0.00" timeLoss="1.47" speed="7.43" speedRelative="0.54" departed="0" arrived="0" entered="1" left="0" laneChangedFrom="1" laneChangedTo="1"/>
        <edge id="E4" sampledSeconds="0.00" departed="0" arrived="0" entered="0" left="0" laneChangedFrom="0" laneChangedTo="0"/>
        <edge id="E5" sampledSeconds="0.00" departed="0" arrived="0" entered="0" left="0" laneChangedFrom="0" laneChangedTo="0"/>
        <edge id="E6" sampledSeconds="0.00" departed="0" arrived="0" entered="0" left="0" laneChangedFrom="0" laneChangedTo="0"/>
        <edge id="E7" sampledSeconds="0.00" departed="0" arrived="0" entered="0" left="0" laneChangedFrom="0" laneChangedTo="0"/>
        <edge id="E8" sampledSeconds="0.00" departed="0" arrived="0" entered="0" left="0" laneChangedFrom="0" laneChangedTo="0"/>
        <edge id="E9" sampledSeconds="0.00" departed="0" arrived="0" entered="0" left="0" laneChangedFrom="0" laneChangedTo="0"/>
    </interval>
    <interval begin="60.00" end="120.00" id="ed">
        <edge id="E0" sampledSeconds="821.80" traveltime="31.78" overlapTraveltime="32.44" density="91.13" laneDensity="30.38" occupancy="15.02" waitingTime="4.00" timeLoss="427.70" speed="4.79" speedRelative="0.34" departed="28" arrived="0" entered="1" left="28" laneChangedFrom="47" laneChangedTo="47"/>
        <edge id="E1" sampledSeconds="918.59" traveltime="35.86" overlapTraveltime="36.64" density="86.55" laneDensity="28.85" occupancy="14.17" waitingTime="12.00" timeLoss="461.46" speed="4.96" speedRelative="0.36" departed="0" arrived="0" entered="27" left="20" laneChangedFrom="44" laneChangedTo="44"/>
        <edge id="E10" sampledSeconds="0.00" departed="0" arrived="0" entered="0" left="0" laneChangedFrom="0" laneChangedTo="0"/>
        <edge id="E11" sampledSeconds="0.00" departed="0" arrived="0" entered="0" left="0" laneChangedFrom="0" laneChangedTo="0"/>
        <edge id="E2" sampledSeconds="229.43" traveltime="10.31" overlapTraveltime="11.62" density="48.94" laneDensity="16.31" occupancy="7.45" waitingTime="0.00" timeLoss="59.47" speed="7.15" speedRelative="0.51" departed="0" arrived="0" entered="20" left="19" laneChangedFrom="14" laneChangedTo="14"/>
        <edge id="E3" sampledSeconds="173.53" traveltime="8.39" overlapTraveltime="9.06" density="48.70" laneDensity="16.23" occupancy="7.31" waitingTime="0.00" timeLoss="49.33" speed="7.11" speedRelative="0.51" departed="0" arrived="0" entered="20" left="19" laneChangedFrom="0" laneChangedTo="0"/>
        <edge id="E4" sampledSeconds="190.72" traveltime="10.60" overlapTraveltime="11.29" density="36.66" laneDensity="12.22" occupancy="5.77" waitingTime="0.00" timeLoss="34.98" speed="8.12" speedRelative="0.58" departed="0" arrived="0" entered="19" left="15" laneChangedFrom="4" laneChangedTo="4"/>
        <edge id="E5" sampledSeconds="288.66" traveltime="29.05" overlapTraveltime="29.76" density="20.64" laneDensity="6.88" occupancy="3.36" waitingTime="0.00" timeLoss="57.02" speed="8.00" speedRelative="0.58" departed="0" arrived="0" entered="15" left="5" laneChangedFrom="64" laneChangedTo="64"/>
        <edge id="E6" sampledSeconds="34.04" traveltime="11.10" overlapTraveltime="11.75" density="6.69" laneDensity="2.23" occupancy="1.03" waitingTime="0.00" timeLoss="8.03" speed="7.64" speedRelative="0.55" departed="0" arrived="0" entered="5" left="1" laneChangedFrom="5" laneChangedTo="5"/>
        <edge id="E7" sampledSeconds="0.00" departed="0" arrived="0" entered="0" left="0" laneChangedFrom="0" laneChangedTo="0"/>
        <edge id="E8" sampledSeconds="0.00" departed="0" arrived="0" entered="0" left="0" laneChangedFrom="0" laneChangedTo="0"/>
        <edge id="E9" sampledSeconds="0.00" departed="0" arrived="0" entered="0" left="0" laneChangedFrom="0" laneChangedTo="0"/>
    </interval>
    <interval begin="120.00" end="180.00" id="ed">
        <edge id="E0" sampledSeconds="1053.30" traveltime="33.69" overlapTraveltime="34.72" density="116.80" laneDensity="38.93" occupancy="18.98" waitingTime="6.00" timeLoss="581.56" speed="4.47" speedRelative="0.32" departed="15" arrived="0" entered="17" left="26" laneChangedFrom="23" laneChangedTo="23"/>
        <edge id="E1" sampledSeconds="1344.63" traveltime="69.86" overlapTraveltime="70.57" density="126.69" laneDensity="42.23" occupancy="20.83" waitingTime="518.00" timeLoss="996.86" speed="2.58" speedRelative="0.19" departed="0" arrived="0" entered="27" left="19" laneChangedFrom="49" laneChangedTo="49"/>
        <edge id="E10" sampledSeconds="0.00" departed="0" arrived="0" entered="0" left="0" laneChangedFrom="0" laneChangedTo="0"/>
        <edge id="E11" sampledSeconds="0.00" departed="0" arrived="0" entered="0" left="0" laneChangedFrom="0" laneChangedTo="0"/>
        <edge id="E2" sampledSeconds="233.67" traveltime="10.94" overlapTraveltime="12.35" density="49.84" laneDensity="16.61" occupancy="7.65" waitingTime="0.00" timeLoss="70.59" speed="6.73" speedRelative="0.48" departed="0" arrived="0" entered="18" left="19" laneChangedFrom="9" laneChangedTo="9"/>
        <edge id="E3" sampledSeconds="181.36" traveltime="8.72" overlapTraveltime="9.39" density="50.90" laneDensity="16.97" occupancy="7.71" waitingTime="0.00" timeLoss="56.22" speed="6.86" speedRelative="0.49" departed="0" arrived="0" entered="20" left="20" laneChangedFrom="2" laneChangedTo="2"/>
        <edge id="E4" sampledSeconds="213.39" traveltime="10.71" overlapTraveltime="11.39" density="41.02" laneDensity="13.67" occupancy="6.46" waitingTime="0.00" timeLoss="40.56" speed="8.05" speedRelative="0.58" departed="0" arrived="0" entered="18" left="20" laneChangedFrom="5" laneChangedTo="5"/>
        <edge id="E5" sampledSeconds="599.21" traveltime="29.57" overlapTraveltime="30.41" density="42.85" laneDensity="14.28" occupancy="6.97" waitingTime="0.00" timeLoss="126.13" speed="7.83" speedRelative="0.56" departed="0" arrived="0" entered="19" left="20" laneChangedFrom="100" laneChangedTo="100"/>
        <edge id="E6" sampledSeconds="246.35" traveltime="12.18" overlapTraveltime="13.00" density="48.45" laneDensity="16.15" occupancy="7.57" waitingTime="0.00" timeLoss="76.26" speed="6.90" speedRelative="0.50" departed="0" arrived="0" entered="20" left="19" laneChangedFrom="30" laneChangedTo="30"/>
        <edge id="E7" sampledSeconds="0.00" departed="0" arrived="0" entered="0" left="0" laneChangedFrom="0" laneChangedTo="0"/>
        <edge id="E8" sampledSeconds="0.00" departed="0" arrived="0" entered="0" left="0" laneChangedFrom="0" laneChangedTo="0"/>
        <edge id="E9" sampledSeconds="0.00" departed="0" arrived="0" entered="0" left="0" laneChangedFrom="0" laneChangedTo="0"/>
    </interval>
    <interval begin="180.00" end="240.00" id="ed">
        <edge id="E0" sampledSeconds="1458.61" traveltime="50.71" overlapTraveltime="53.21" density="161.74" laneDensity="53.91" occupancy="26.35" waitingTime="247.00" timeLoss="1032.51" speed="2.92" speedRelative="0.21" departed="13" arrived="0" entered="18" left="23" laneChangedFrom="18" laneChangedTo="18"/>
        <edge id="E1" sampledSeconds="1613.28" traveltime="74.34" overlapTraveltime="75.22" density="152.00" laneDensity="50.67" occupancy="24.94" waitingTime="570.00" timeLoss="1221.86" speed="2.42" speedRelative="0.17" departed="0" arrived="0" entered="22" left="20" laneChangedFrom="49" laneChangedTo="49"/>
        <edge id="E10" sampledSeconds="0.00" departed="0" arrived="0" entered="0" left="0" laneChangedFrom="0" laneChangedTo="0"/>
        <edge id="E11" sampledSeconds="0.00" departed="0" arrived="0" entered="0" left="0" laneChangedFrom="0" laneChangedTo="0"/>
        <edge id="E2" sampledSeconds="243.26" traveltime="10.75" overlapTraveltime="12.08" density="51.89" laneDensity="17.30" occupancy="7.95" waitingTime="0.00" timeLoss="71.23" speed="6.88" speedRelative="0.50" departed="0" arrived="0" entered="21" left="20" laneChangedFrom="11" laneChangedTo="11"/>
        <edge id="E3" sampledSeconds="184.09" traveltime="8.53" overlapTraveltime="9.19" density="51.66" laneDensity="17.22" occupancy="7.78" waitingTime="0.00" timeLoss="53.97" speed="7.00" speedRelative="0.50" departed="0" arrived="0" entered="20" left="19" laneChangedFrom="3" laneChangedTo="3"/>
        <edge id="E4" sampledSeconds="229.23" traveltime="10.73" overlapTraveltime="11.46" density="44.06" laneDensity="14.69" occupancy="6.89" waitingTime="0.00" timeLoss="44.99" speed="8.00" speedRelative="0.58" departed="0" arrived="0" entered="20" left="20" laneChangedFrom="6" laneChangedTo="6"/>
        <edge id="E5" sampledSeconds="605.09" traveltime="31.13" overlapTraveltime="32.00" density="43.27" laneDensity="14.42" occupancy="7.03" waitingTime="0.00" timeLoss="152.32" speed="7.44" speedRelative="0.54" departed="0" arrived="0" entered="21" left="18" laneChangedFrom="91" laneChangedTo="91"/>
        <edge id="E6" sampledSeconds="324.28" traveltime="16.24" overlapTraveltime="17.54" density="63.77" laneDensity="21.26" occupancy="10.02" waitingTime="0.00" timeLoss="158.35" speed="5.12" speedRelative="0.37" departed="0" arrived="0" entered="18" left="18" laneChangedFrom="6" laneChangedTo="6"/>
        <edge id="E7" sampledSeconds="0.00" departed="0" arrived="0" entered="0" left="0" laneChangedFrom="0" laneChangedTo="0"/>
        <edge id="E8" sampledSeconds="0.00" departed="0" arrived="0" entered="0" left="0" laneChangedFrom="0" laneChangedTo="0"/>
        <edge id="E9" sampledSeconds="0.00" departed="0" arrived="0" entered="0" left="0" laneChangedFrom="0" laneChangedTo="0"/>
    </interval>
    <interval begin="240.00" end="300.00" id="ed">
        <edge id="E0" sampledSeconds="2026.28" traveltime="77.99" overlapTraveltime="81.42" density="224.69" laneDensity="74.90" occupancy="36.94" waitingTime="767.00" timeLoss="1639.32" speed="1.91" speedRelative="0.14" departed="14" arrived="0" entered="16" left="21" laneChangedFrom="19" laneChangedTo="19"/>
        <edge id="E1" sampledSeconds="1681.21" traveltime="79.23" overlapTraveltime="79.98" density="158.40" laneDensity="52.80" occupancy="26.19" waitingTime="783.00" timeLoss="1297.42" speed="2.27" speedRelative="0.16" departed="0" arrived="0" entered="20" left="21" laneChangedFrom="45" laneChangedTo="45"/>
        <edge id="E10" sampledSeconds="0.00" departed="0" arrived="0" entered="0" left="0" laneChangedFrom="0" laneChangedTo="0"/>
        <edge id="E11" sampledSeconds="0.00" departed="0" arrived="0" entered="0" left="0" laneChangedFrom="0" laneChangedTo="0"/>
        <edge id="E2" sampledSeconds="235.62" traveltime="10.61" overlapTraveltime="11.82" density="50.26" laneDensity="16.75" occupancy="7.74" waitingTime="0.00" timeLoss="63.18" speed="7.04" speedRelative="0.51" departed="0" arrived="0" entered="20" left="19" laneChangedFrom="15" laneChangedTo="15"/>
        <edge id="E3" sampledSeconds="182.99" traveltime="8.72" overlapTraveltime="9.33" density="51.35" laneDensity="17.12" occupancy="7.74" waitingTime="0.00" timeLoss="56.08" speed="6.90" speedRelative="0.50" departed="0" arrived="0" entered="19" left="19" laneChangedFrom="1" laneChangedTo="1"/>
        <edge id="E4" sampledSeconds="218.38" traveltime="10.62" overlapTraveltime="11.31" density="41.98" laneDensity="13.99" occupancy="6.60" waitingTime="0.00" timeLoss="40.49" speed="8.11" speedRelative="0.58" departed="0" arrived="0" entered="19" left="19" laneChangedFrom="3" laneChangedTo="3"/>
        <edge id="E5" sampledSeconds="732.10" traveltime="35.71" overlapTraveltime="36.85" density="52.36" laneDensity="17.45" occupancy="8.53" waitingTime="0.00" timeLoss="255.70" speed="6.46" speedRelative="0.47" departed="0" arrived="0" entered="18" left="19" laneChangedFrom="83" laneChangedTo="83"/>
        <edge id="E6" sampledSeconds="411.75" traveltime="22.93" overlapTraveltime="24.40" density="80.97" laneDensity="26.99" occupancy="12.79" waitingTime="1.00" timeLoss="260.27" speed="3.68" speedRelative="0.26" departed="0" arrived="0" entered="19" left="15" laneChangedFrom="12" laneChangedTo="12"/>
        <edge id="E7" sampledSeconds="0.00" departed="0" arrived="0" entered="0" left="0" laneChangedFrom="0" laneChangedTo="0"/>
        <edge id="E8" sampledSeconds="0.00" departed="0" arrived="0" entered="0" left="0" laneChangedFrom="0" laneChangedTo="0"/>
        <edge id="E9" sampledSeconds="0.00" departed="0" arrived="0" entered="0" left="0" laneChangedFrom="0" laneChangedTo="0"/>
    </interval>
    <interval begin="300.00" end="360.00" id="ed">
        <edge id="E0" sampledSeconds="2248.43" traveltime="110.87" overlapTraveltime="115.01" density="249.33" laneDensity="83.11" occupancy="40.90" waitingTime="464.00" timeLoss="1944.57" speed="1.35" speedRelative="0.10" departed="0" arrived="0" entered="19" left="15" laneChangedFrom="6" laneChangedTo="6"/>
        <edge id="E1" sampledSeconds="1644.80" traveltime="103.35" overlapTraveltime="103.37" density="154.97" laneDensity="51.66" occupancy="25.52" waitingTime="881.00" timeLoss="1354.14" speed="1.76" speedRelative="0.13" departed="0" arrived="0" entered="15" left="21" laneChangedFrom="41" laneChangedTo="41"/>
        <edge id="E10" sampledSeconds="0.00" departed="0" arrived="0" entered="0" left="0" laneChangedFrom="0" laneChangedTo="0"/>
        <edge id="E11" sampledSeconds="0.00" departed="0" arrived="0" entered="0" left="0" laneChangedFrom="0" laneChangedTo="0"/>
        <edge id="E2" sampledSeconds="254.33" traveltime="10.76" overlapTraveltime="12.00" density="54.25" laneDensity="18.08" occupancy="8.35" waitingTime="0.00" timeLoss="72.58" speed="6.93" speedRelative="0.50" departed="0" arrived="0" entered="21" left="22" laneChangedFrom="14" laneChangedTo="14"/>
        <edge id="E3" sampledSeconds="191.84" traveltime="8.38" overlapTraveltime="9.01" density="53.84" laneDensity="17.95" occupancy="8.12" waitingTime="0.00" timeLoss="53.99" speed="7.15" speedRelative="0.51" departed="0" arrived="0" entered="22" left="22" laneChangedFrom="3" laneChangedTo="3"/>
        <edge id="E4" sampledSeconds="243.66" traveltime="10.66" overlapTraveltime="11.32" density="46.83" laneDensity="15.61" occupancy="7.34" waitingTime="0.00" timeLoss="45.89" speed="8.10" speedRelative="0.58" departed="0" arrived="0" entered="23" left="21" laneChangedFrom="1" laneChangedTo="1"/>
        <edge id="E5" sampledSeconds="763.33" traveltime="35.23" overlapTraveltime="36.52" density="54.59" laneDensity="18.20" occupancy="8.86" waitingTime="0.00" timeLoss="261.12" speed="6.52" speedRelative="0.47" departed="0" arrived="0" entered="22" left="20" laneChangedFrom="91" laneChangedTo="91"/>
        <edge id="E6" sampledSeconds="474.60" traveltime="21.56" overlapTraveltime="22.98" density="93.33" laneDensity="31.11" occupancy="14.67" waitingTime="3.00" timeLoss="289.25" speed="3.91" speedRelative="0.28" departed="0" arrived="0" entered="20" left="21" laneChangedFrom="27" laneChangedTo="27"/>
        <edge id="E7" sampledSeconds="0.00" departed="0" arrived="0" entered="0" left="0" laneChangedFrom="0" laneChangedTo="0"/>
        <edge id="E8" sampledSeconds="0.00" departed="0" arrived="0" entered="0" left="0" laneChangedFrom="0" laneChangedTo="0"/>
        <edge id="E9" sampledSeconds="0.00" departed="0" arrived="0" entered="0" left="0" laneChangedFrom="0" laneChangedTo="0"/>
    </interval>
    <interval begin="360.00" end="420.00" id="ed">
        <edge id="E0" sampledSeconds="2613.36" traveltime="180.47" overlapTraveltime="182.02" density="289.79" laneDensity="96.60" occupancy="47.11" waitingTime="863.00" timeLoss="2389.50" speed="0.85" speedRelative="0.06" departed="0" arrived="0" entered="15" left="22" laneChangedFrom="4" laneChangedTo="4"/>
        <edge id="E1" sampledSeconds="1198.68" traveltime="46.55" overlapTraveltime="47.41" density="112.94" laneDensity="37.65" occupancy="18.14" waitingTime="116.00" timeLoss="737.43" speed="3.84" speedRelative="0.28" departed="0" arrived="0" entered="23" left="20" laneChangedFrom="36" laneChangedTo="36"/>
        <edge id="E10" sampledSeconds="0.00" departed="0" arrived="0" entered="0" left="0" laneChangedFrom="0" laneChangedTo="0"/>
        <edge id="E11" sampledSeconds="0.00" departed="0" arrived="0" entered="0" left="0" laneChangedFrom="0" laneChangedTo="0"/>
        <edge id="E2" sampledSeconds="237.87" traveltime="10.50" overlapTraveltime="11.75" density="50.74" laneDensity="16.91" occupancy="7.79" waitingTime="0.00" timeLoss="62.89" speed="7.08" speedRelative="0.51" departed="0" arrived="0" entered="20" left="21" laneChangedFrom="13" laneChangedTo="13"/>
        <edge id="E3" sampledSeconds="194.31" traveltime="8.69" overlapTraveltime="9.35" density="54.53" laneDensity="18.18" occupancy="8.26" waitingTime="0.00" timeLoss="60.01" speed="6.89" speedRelative="0.50" departed="0" arrived="0" entered="20" left="20" laneChangedFrom="3" laneChangedTo="3"/>
        <edge id="E4" sampledSeconds="231.45" traveltime="10.69" overlapTraveltime="11.38" density="44.49" laneDensity="14.83" occupancy="7.00" waitingTime="0.00" timeLoss="43.98" speed="8.06" speedRelative="0.58" departed="0" arrived="0" entered="20" left="20" laneChangedFrom="3" laneChangedTo="3"/>
        <edge id="E5" sampledSeconds="699.90" traveltime="31.75" overlapTraveltime="32.87" density="50.05" laneDensity="16.68" occupancy="8.12" waitingTime="0.00" timeLoss="189.30" speed="7.24" speedRelative="0.52" departed="0" arrived="0" entered="20" left="23" laneChangedFrom="90" laneChangedTo="90"/>
        <edge id="E6" sampledSeconds="609.74" traveltime="27.14" overlapTraveltime="29.64" density="119.91" laneDensity="39.97" occupancy="18.76" waitingTime="20.00" timeLoss="425.05" speed="3.03" speedRelative="0.22" departed="0" arrived="0" entered="22" left="18" laneChangedFrom="37" laneChangedTo="37"/>
        <edge id="E7" sampledSeconds="0.00" departed="0" arrived="0" entered="0" left="0" laneChangedFrom="0" laneChangedTo="0"/>
        <edge id="E8" sampledSeconds="0.00" departed="0" arrived="0" entered="0" left="0" laneChangedFrom="0" laneChangedTo="0"/>
        <edge id="E9" sampledSeconds="0.00" departed="0" arrived="0" entered="0" left="0" laneChangedFrom="0" laneChangedTo="0"/>
    </interval>
    <interval begin="420.00" end="480.00" id="ed">
        <edge id="E0" sampledSeconds="1847.42" traveltime="67.99" overlapTraveltime="71.51" density="204.86" laneDensity="68.29" occupancy="32.90" waitingTime="133.00" timeLoss="1445.49" speed="2.17" speedRelative="0.16" departed="0" arrived="0" entered="22" left="25" laneChangedFrom="18" laneChangedTo="18"/>
        <edge id="E1" sampledSeconds="1803.19" traveltime="103.71" overlapTraveltime="104.13" density="169.90" laneDensity="56.63" occupancy="27.82" waitingTime="800.00" timeLoss="1486.94" speed="1.75" speedRelative="0.13" departed="0" arrived="0" entered="24" left="20" laneChangedFrom="40" laneChangedTo="40"/>
        <edge id="E10" sampledSeconds="0.00" departed="0" arrived="0" entered="0" left="0" laneChangedFrom="0" laneChangedTo="0"/>
        <edge id="E11" sampledSeconds="0.00" departed="0" arrived="0" entered="0" left="0" laneChangedFrom="0" laneChangedTo="0"/>
        <edge id="E2" sampledSeconds="234.87" traveltime="10.64" overlapTraveltime="11.86" density="50.10" laneDensity="16.70" occupancy="7.72" waitingTime="0.00" timeLoss="64.57" speed="7.01" speedRelative="0.50" departed="0" arrived="0" entered="20" left="20" laneChangedFrom="12" laneChangedTo="12"/>
        <edge id="E3" sampledSeconds="186.77" traveltime="8.83" overlapTraveltime="9.51" density="52.41" laneDensity="17.47" occupancy="7.92" waitingTime="0.00" timeLoss="59.23" speed="6.77" speedRelative="0.49" departed="0" arrived="0" entered="20" left="20" laneChangedFrom="3" laneChangedTo="3"/>
        <edge id="E4" sampledSeconds="217.97" traveltime="10.61" overlapTraveltime="11.32" density="41.90" laneDensity="13.97" occupancy="6.60" waitingTime="0.00" timeLoss="40.05" speed="8.10" speedRelative="0.58" departed="0" arrived="0" entered="19" left="21" laneChangedFrom="7" laneChangedTo="7"/>
        <edge id="E5" sampledSeconds="722.05" traveltime="35.44" overlapTraveltime="37.83" density="51.64" laneDensity="17.21" occupancy="8.26" waitingTime="1.00" timeLoss="264.13" speed="6.29" speedRelative="0.45" departed="0" arrived="0" entered="20" left="17" laneChangedFrom="82" laneChangedTo="82"/>
        <edge id="E6" sampledSeconds="755.16" traveltime="39.09" overlapTraveltime="41.40" density="148.51" laneDensity="49.50" occupancy="23.31" waitingTime="23.00" timeLoss="591.35" speed="2.17" speedRelative="0.16" departed="0" arrived="0" entered="17" left="20" laneChangedFrom="27" laneChangedTo="27"/>
        <edge id="E7" sampledSeconds="0.00" departed="0" arrived="0" entered="0" left="0" laneChangedFrom="0" laneChangedTo="0"/>
        <edge id="E8" sampledSeconds="0.00" departed="0" arrived="0" entered="0" left="0" laneChangedFrom="0" laneChangedTo="0"/>
        <edge id="E9" sampledSeconds="0.00" departed="0" arrived="0" entered="0" left="0" laneChangedFrom="0" laneChangedTo="0"/>
    </interval>
    <interval begin="480.00" end="540.00" id="ed">
        <edge id="E0" sampledSeconds="2523.85" traveltime="227.94" overlapTraveltime="240.62" density="279.87" laneDensity="93.29" occupancy="45.00" waitingTime="1345.00" timeLoss="2360.71" speed="0.65" speedRelative="0.05" departed="0" arrived="0" entered="17" left="10" laneChangedFrom="3" laneChangedTo="3"/>
        <edge id="E1" sampledSeconds="1301.32" traveltime="69.49" overlapTraveltime="70.29" density="122.61" laneDensity="40.87" occupancy="18.97" waitingTime="299.04" timeLoss="963.21" speed="2.59" speedRelative="0.19" departed="0" arrived="0" entered="12" left="18" laneChangedFrom="25" laneChangedTo="25"/>
        <edge id="E10" sampledSeconds="0.00" departed="0" arrived="0" entered="0" left="0" laneChangedFrom="0" laneChangedTo="0"/>
        <edge id="E11" sampledSeconds="0.00" departed="0" arrived="0" entered="0" left="0" laneChangedFrom="0" laneChangedTo="0"/>
        <edge id="E2" sampledSeconds="230.22" traveltime="10.70" overlapTraveltime="12.12" density="49.10" laneDensity="16.37" occupancy="7.49" waitingTime="0.00" timeLoss="65.99" speed="6.86" speedRelative="0.49" departed="0" arrived="0" entered="19" left="19" laneChangedFrom="10" laneChangedTo="10"/>
        <edge id="E3" sampledSeconds="190.70" traveltime="9.01" overlapTraveltime="9.64" density="53.52" laneDensity="17.84" occupancy="8.07" waitingTime="0.00" timeLoss="62.74" speed="6.68" speedRelative="0.48" departed="0" arrived="0" entered="20" left="21" laneChangedFrom="4" laneChangedTo="4"/>
        <edge id="E4" sampledSeconds="227.22" traveltime="10.63" overlapTraveltime="11.32" density="43.67" laneDensity="14.56" occupancy="6.86" waitingTime="0.00" timeLoss="42.59" speed="8.10" speedRelative="0.58" departed="0" arrived="0" entered="21" left="19" laneChangedFrom="5" laneChangedTo="5"/>
        <edge id="E5" sampledSeconds="728.19" traveltime="34.94" overlapTraveltime="36.36" density="52.08" laneDensity="17.36" occupancy="8.42" waitingTime="2.00" timeLoss="245.70" speed="6.55" speedRelative="0.47" departed="0" arrived="0" entered="20" left="22" laneChangedFrom="88" laneChangedTo="88"/>
        <edge id="E6" sampledSeconds="654.93" traveltime="29.53" overlapTraveltime="31.77" density="128.80" laneDensity="42.93" occupancy="20.20" waitingTime="9.00" timeLoss="469.76" speed="2.82" speedRelative="0.20" departed="0" arrived="0" entered="23" left="20" laneChangedFrom="32" laneChangedTo="32"/>
        <edge id="E7" sampledSeconds="0.00" departed="0" arrived="0" entered="0" left="0" laneChangedFrom="0" laneChangedTo="0"/>
        <edge id="E8" sampledSeconds="0.00" departed="0" arrived="0" entered="0" left="0" laneChangedFrom="0" laneChangedTo="0"/>
        <edge id="E9" sampledSeconds="0.00" departed="0" arrived="0" entered="0" left="0" laneChangedFrom="0" laneChangedTo="0"/>
    </interval>
    <interval begin="540.00" end="600.00" id="ed">
        <edge id="E0" sampledSeconds="2193.32" traveltime="109.11" overlapTraveltime="112.84" density="243.22" laneDensity="81.07" occupancy="38.98" waitingTime="348.00" timeLoss="1890.66" speed="1.38" speedRelative="0.10" departed="0" arrived="0" entered="17" left="21" laneChangedFrom="8" laneChangedTo="8"/>
        <edge id="E1" sampledSeconds="1245.40" traveltime="59.77" overlapTraveltime="60.48" density="117.34" laneDensity="39.11" occupancy="18.84" waitingTime="156.00" timeLoss="869.61" speed="3.01" speedRelative="0.22" departed="0" arrived="0" entered="18" left="21" laneChangedFrom="32" laneChangedTo="32"/>
        <edge id="E10" sampledSeconds="0.00" departed="0" arrived="0" entered="0" left="0" laneChangedFrom="0" laneChangedTo="0"/>
        <edge id="E11" sampledSeconds="0.00" departed="0" arrived="0" entered="0" left="0" laneChangedFrom="0" laneChangedTo="0"/>
        <edge id="E2" sampledSeconds="237.10" traveltime="10.50" overlapTraveltime="11.67" density="50.57" laneDensity="16.86" occupancy="7.82" waitingTime="0.00" timeLoss="63.92" speed="7.12" speedRelative="0.51" departed="0" arrived="0" entered="21" left="20" laneChangedFrom="14" laneChangedTo="14"/>
        <edge id="E3" sampledSeconds="186.64" traveltime="8.57" overlapTraveltime="9.28" density="52.38" laneDensity="17.46" occupancy="7.96" waitingTime="0.00" timeLoss="56.37" speed="6.94" speedRelative="0.50" departed="0" arrived="0" entered="20" left="19" laneChangedFrom="5" laneChangedTo="5"/>
        <edge id="E4" sampledSeconds="224.28" traveltime="10.81" overlapTraveltime="11.51" density="43.11" laneDensity="14.37" occupancy="6.79" waitingTime="0.00" timeLoss="44.87" speed="7.96" speedRelative="0.57" departed="0" arrived="0" entered="19" left="19" laneChangedFrom="3" laneChangedTo="3"/>
        <edge id="E5" sampledSeconds="724.87" traveltime="35.78" overlapTraveltime="38.12" density="51.84" laneDensity="17.28" occupancy="8.31" waitingTime="10.00" timeLoss="267.99" speed="6.25" speedRelative="0.45" departed="0" arrived="0" entered="19" left="16" laneChangedFrom="75" laneChangedTo="75"/>
        <edge id="E6" sampledSeconds="919.32" traveltime="54.07" overlapTraveltime="57.90" density="180.79" laneDensity="60.26" occupancy="28.10" waitingTime="152.00" timeLoss="776.38" speed="1.55" speedRelative="0.11" departed="0" arrived="0" entered="16" left="16" laneChangedFrom="21" laneChangedTo="21"/>
        <edge id="E7" sampledSeconds="0.00" departed="0" arrived="0" entered="0" left="0" laneChangedFrom="0" laneChangedTo="0"/>
        <edge id="E8" sampledSeconds="0.00" departed="0" arrived="0" entered="0" left="0" laneChangedFrom="0" laneChangedTo="0"/>
        <edge id="E9" sampledSeconds="0.00" departed="0" arrived="0" entered="0" left="0" laneChangedFrom="0" laneChangedTo="0"/>
    </interval>
    <interval begin="600.00" end="660.00" id="ed">
        <edge id="E0" sampledSeconds="1769.87" traveltime="69.81" overlapTraveltime="71.54" density="196.26" laneDensity="65.42" occupancy="31.56" waitingTime="123.15" timeLoss="1384.11" speed="2.17" speedRelative="0.16" departed="0" arrived="0" entered="20" left="28" laneChangedFrom="12" laneChangedTo="12"/>
        <edge id="E1" sampledSeconds="1531.20" traveltime="71.04" overlapTraveltime="71.76" density="144.27" laneDensity="48.09" occupancy="23.50" waitingTime="398.00" timeLoss="1141.92" speed="2.53" speedRelative="0.18" departed="0" arrived="0" entered="30" left="21" laneChangedFrom="45" laneChangedTo="45"/>
        <edge id="E10" sampledSeconds="0.00" departed="0" arrived="0" entered="0" left="0" laneChangedFrom="0" laneChangedTo="0"/>
        <edge id="E11" sampledSeconds="0.00" departed="0" arrived="0" entered="0" left="0" laneChangedFrom="0" laneChangedTo="0"/>