<?xml version="1.0" encoding="UTF-8"?>

<!-- generated on 2022-07-25 10:24:08 by Eclipse SUMO GUI Version 1.14.0
<configuration xmlns:xsi="http://www.w3.org/2001/XMLSchema-instance" xsi:noNamespaceSchemaLocation="http://sumo.dlr.de/xsd/sumoConfiguration.xsd">

    <input>
        <net-file value="traci_exp.net.xml"/>
        <route-files value="traci_exp.rou.xml"/>
        <additional-files value="traci_exp.add.xml"/>
    </input>

    <output>
        <tripinfo-output value="tripinfo.xml"/>
    </output>

    <time>
        <end value="1000"/>
    </time>

    <traci_server>
        <remote-port value="54387"/>
    </traci_server>

</configuration>
-->

<detector xmlns:xsi="http://www.w3.org/2001/XMLSchema-instance" xsi:noNamespaceSchemaLocation="http://sumo.dlr.de/xsd/det_e1_file.xsd">
    <interval begin="0.00" end="500.00" id="det_0" nVehContrib="46" flow="331.20" occupancy="8.52" speed="6.73" harmonicMeanSpeed="5.70" length="5.00" nVehEntered="50"/>
    <interval begin="500.00" end="1000.00" id="det_0" nVehContrib="34" flow="244.80" occupancy="6.03" speed="6.94" harmonicMeanSpeed="6.19" length="5.00" nVehEntered="38"/>
</detector>
