<?xml version="1.0" encoding="UTF-8"?>

<!-- generated on 2022-07-25 16:19:04 by Eclipse SUMO GUI Version 1.14.0
<configuration xmlns:xsi="http://www.w3.org/2001/XMLSchema-instance" xsi:noNamespaceSchemaLocation="http://sumo.dlr.de/xsd/sumoConfiguration.xsd">

    <input>
        <net-file value="traci_exp.net.xml"/>
        <route-files value="traci_exp.rou.xml"/>
        <additional-files value="traci_exp.add.xml"/>
    </input>

    <output>
        <tripinfo-output value="tripinfo.xml"/>
    </output>

    <time>
        <end value="1000"/>
    </time>

    <traci_server>
        <remote-port value="63604"/>
    </traci_server>

</configuration>
-->

<tripinfos xmlns:xsi="http://www.w3.org/2001/XMLSchema-instance" xsi:noNamespaceSchemaLocation="http://sumo.dlr.de/xsd/tripinfo_file.xsd">
</tripinfos>
