<?xml version="1.0" encoding="UTF-8"?>

<!-- generated on 2022-07-27 11:05:58 by Eclipse SUMO sumo Version 1.14.0
<configuration xmlns:xsi="http://www.w3.org/2001/XMLSchema-instance" xsi:noNamespaceSchemaLocation="http://sumo.dlr.de/xsd/sumoConfiguration.xsd">

    <input>
        <net-file value="C:/Users/mnity/Desktop/quick_adap_to_incidents/Experiment/Simulations/Base/traci_exp.net.xml"/>
        <route-files value="C:/Users/mnity/Desktop/quick_adap_to_incidents/Experiment/Simulations/Base/traci_exp.rou.xml"/>
        <additional-files value="C:/Users/mnity/Desktop/quick_adap_to_incidents/Experiment/Simulations/Base/traci_exp.add.xml,C:/Users/mnity/Desktop/quick_adap_to_incidents/Experiment/Simulations/Base/edgedata.add.xml"/>
    </input>

    <output>
        <tripinfo-output value="tripinfo.xml"/>
    </output>

    <time>
        <begin value="0"/>
        <end value="86400"/>
    </time>

    <traci_server>
        <remote-port value="57852"/>
    </traci_server>

    <gui_only>
        <quit-on-end value="true"/>
        <start value="true"/>
    </gui_only>

</configuration>
-->

<tripinfos xmlns:xsi="http://www.w3.org/2001/XMLSchema-instance" xsi:noNamespaceSchemaLocation="http://sumo.dlr.de/xsd/tripinfo_file.xsd">
    <tripinfo id="carflow.42" depart="87.00" departLane="E0_0" departPos="5.10" departSpeed="0.00" departDelay="87.00" arrival="10028.00" arrivalLane="E1_2" arrivalPos="176.89" arrivalSpeed="7.35" duration="9941.00" routeLength="31036.01" waitingTime="2276.00" waitingCount="294" stopTime="0.00" timeLoss="6821.64" rerouteNo="68" devices="tripinfo_carflow.42 routing_carflow.42" vType="car" speedFactor="1.09" vaporized=""/>
    <tripinfo id="carflow.64" depart="139.00" departLane="E0_0" departPos="5.10" departSpeed="0.00" departDelay="139.00" arrival="10028.00" arrivalLane="E0_2" arrivalPos="150.30" arrivalSpeed="6.88" duration="9889.00" routeLength="31809.11" waitingTime="2352.00" waitingCount="270" stopTime="0.00" timeLoss="6676.05" rerouteNo="69" devices="tripinfo_carflow.64 routing_carflow.64" vType="car" speedFactor="0.94" vaporized=""/>
    <tripinfo id="carflow.57" depart="117.00" departLane="E0_0" departPos="5.10" departSpeed="0.00" departDelay="117.00" arrival="10031.00" arrivalLane="E1_1" arrivalPos="176.89" arrivalSpeed="7.82" duration="9914.00" routeLength="29206.12" waitingTime="2269.00" waitingCount="308" stopTime="0.00" timeLoss="6981.58" rerouteNo="64" devices="tripinfo_carflow.57 routing_carflow.57" vType="car" speedFactor="1.14" vaporized=""/>
    <tripinfo id="carflow.81" depart="216.00" departLane="E0_0" departPos="5.10" departSpeed="0.00" departDelay="216.00" arrival="10034.00" arrivalLane="E1_2" arrivalPos="176.89" arrivalSpeed="9.99" duration="9818.00" routeLength="31053.36" waitingTime="2228.00" waitingCount="323" stopTime="0.00" timeLoss="6688.72" rerouteNo="68" devices="tripinfo_carflow.81 routing_carflow.81" vType="car" speedFactor="1.00" vaporized=""/>
    <tripinfo id="carflow.93" depart="267.00" departLane="E0_0" departPos="5.10" departSpeed="0.00" departDelay="267.00" arrival="10037.00" arrivalLane="E0_2" arrivalPos="150.30" arrivalSpeed="9.78" duration="9770.00" routeLength="29956.02" waitingTime="1988.00" waitingCount="305" stopTime="0.00" timeLoss="6742.52" rerouteNo="65" devices="tripinfo_carflow.93 routing_carflow.93" vType="car" speedFactor="0.92" vaporized=""/>
    <tripinfo id="carflow.60" depart="128.00" departLane="E0_0" departPos="5.10" departSpeed="0.00" departDelay="128.00" arrival="10039.00" arrivalLane="E0_2" arrivalPos="150.30" arrivalSpeed="8.64" duration="9911.00" routeLength="31823.56" waitingTime="2298.00" waitingCount="281" stopTime="0.00" timeLoss="6712.55" rerouteNo="69" devices="tripinfo_carflow.60 routing_carflow.60" vType="car" speedFactor="1.08" vaporized=""/>
    <tripinfo id="carflow.34" depart="69.00" departLane="E0_0" departPos="5.10" departSpeed="0.00" departDelay="69.00" arrival="10041.00" arrivalLane="E1_2" arrivalPos="176.89" arrivalSpeed="9.34" duration="9972.00" routeLength="32935.35" waitingTime="2070.00" waitingCount="290" stopTime="0.00" timeLoss="6654.44" rerouteNo="72" devices="tripinfo_carflow.34 routing_carflow.34" vType="car" speedFactor="0.99" vaporized=""/>
    <tripinfo id="carflow.92" depart="266.00" departLane="E0_0" departPos="5.10" departSpeed="0.00" departDelay="266.00" arrival="10042.00" arrivalLane="E0_2" arrivalPos="150.30" arrivalSpeed="8.80" duration="9776.00" routeLength="28071.17" waitingTime="2421.00" waitingCount="349" stopTime="0.00" timeLoss="6912.16" rerouteNo="61" devices="tripinfo_carflow.92 routing_carflow.92" vType="car" speedFactor="0.83" vaporized=""/>
    <tripinfo id="carflow.97" depart="284.00" departLane="E0_0" departPos="5.10" departSpeed="0.00" departDelay="284.00" arrival="10044.00" arrivalLane="E1_1" arrivalPos="176.89" arrivalSpeed="7.88" duration="9760.00" routeLength="28247.79" waitingTime="2504.00" waitingCount="310" stopTime="0.00" timeLoss="6893.46" rerouteNo="62" devices="tripinfo_carflow.97 routing_carflow.97" vType="car" speedFactor="0.91" vaporized=""/>
    <tripinfo id="carflow.67" depart="150.00" departLane="E0_0" departPos="5.10" departSpeed="0.00" departDelay="150.00" arrival="10046.00" arrivalLane="E1_2" arrivalPos="176.89" arrivalSpeed="8.45" duration="9896.00" routeLength="31050.46" waitingTime="2256.00" waitingCount="296" stopTime="0.00" timeLoss="6756.83" rerouteNo="68" devices="tripinfo_carflow.67 routing_carflow.67" vType="car" speedFactor="0.91" vaporized=""/>
    <tripinfo id="carflow.50" depart="100.00" departLane="E0_0" departPos="5.10" departSpeed="0.00" departDelay="100.00" arrival="10047.00" arrivalLane="E0_2" arrivalPos="150.30" arrivalSpeed="7.28" duration="9947.00" routeLength="29941.56" waitingTime="2315.00" waitingCount="337" stopTime="0.00" timeLoss="6900.61" rerouteNo="65" devices="tripinfo_carflow.50 routing_carflow.50" vType="car" speedFactor="0.85" vaporized=""/>
    <tripinfo id="carflow.1" depart="3.00" departLane="E0_0" departPos="5.10" departSpeed="0.00" departDelay="3.00" arrival="10051.00" arrivalLane="E1_1" arrivalPos="176.89" arrivalSpeed="7.28" duration="10048.00" routeLength="35712.07" waitingTime="1915.00" waitingCount="314" stopTime="0.00" timeLoss="6440.31" rerouteNo="78" devices="tripinfo_carflow.1 routing_carflow.1" vType="car" speedFactor="0.94" vaporized=""/>
    <tripinfo id="carflow.91" depart="263.00" departLane="E0_0" departPos="5.10" departSpeed="0.00" departDelay="263.00" arrival="10051.00" arrivalLane="E0_2" arrivalPos="150.30" arrivalSpeed="9.01" duration="9788.00" routeLength="30862.31" waitingTime="1992.00" waitingCount="330" stopTime="0.00" timeLoss="6659.69" rerouteNo="67" devices="tripinfo_carflow.91 routing_carflow.91" vType="car" speedFactor="0.89" vaporized=""/>
    <tripinfo id="carflow.68" depart="154.00" departLane="E0_0" departPos="5.10" departSpeed="0.00" departDelay="154.00" arrival="10054.00" arrivalLane="E1_1" arrivalPos="176.89" arrivalSpeed="9.82" duration="9900.00" routeLength="32926.70" waitingTime="1888.00" waitingCount="318" stopTime="0.00" timeLoss="6587.28" rerouteNo="72" devices="tripinfo_carflow.68 routing_carflow.68" vType="car" speedFactor="1.04" vaporized=""/>
    <tripinfo id="carflow.30" depart="60.00" departLane="E0_0" departPos="5.10" departSpeed="0.00" departDelay="60.00" arrival="10056.00" arrivalLane="E0_2" arrivalPos="150.30" arrivalSpeed="9.81" duration="9996.00" routeLength="32761.69" waitingTime="2108.00" waitingCount="308" stopTime="0.00" timeLoss="6707.17" rerouteNo="71" devices="tripinfo_carflow.30 routing_carflow.30" vType="car" speedFactor="1.18" vaporized=""/>
    <tripinfo id="carflow.90" depart="258.00" departLane="E0_0" departPos="5.10" departSpeed="0.00" departDelay="258.00" arrival="10057.00" arrivalLane="E1_2" arrivalPos="176.89" arrivalSpeed="8.50" duration="9799.00" routeLength="31067.83" waitingTime="2057.00" waitingCount="298" stopTime="0.00" timeLoss="6672.99" rerouteNo="68" devices="tripinfo_carflow.90 routing_carflow.90" vType="car" speedFactor="1.02" vaporized=""/>
    <tripinfo id="carflow.82" depart="221.00" departLane="E0_0" departPos="5.10" departSpeed="0.00" departDelay="221.00" arrival="10060.00" arrivalLane="E0_2" arrivalPos="150.30" arrivalSpeed="8.43" duration="9839.00" routeLength="30897.03" waitingTime="2081.00" waitingCount="343" stopTime="0.00" timeLoss="6727.94" rerouteNo="67" devices="tripinfo_carflow.82 routing_carflow.82" vType="car" speedFactor="1.02" vaporized=""/>
    <tripinfo id="carflow.66" depart="147.00" departLane="E0_0" departPos="5.10" departSpeed="0.00" departDelay="147.00" arrival="10061.00" arrivalLane="E1_1" arrivalPos="176.89" arrivalSpeed="7.33" duration="9914.00" routeLength="32003.01" waitingTime="2091.00" waitingCount="288" stopTime="0.00" timeLoss="6677.63" rerouteNo="70" devices="tripinfo_carflow.66 routing_carflow.66" vType="car" speedFactor="0.91" vaporized=""/>
    <tripinfo id="carflow.53" depart="106.00" departLane="E0_0" departPos="5.10" departSpeed="0.00" departDelay="106.00" arrival="10063.00" arrivalLane="E0_2" arrivalPos="150.30" arrivalSpeed="8.84" duration="9957.00" routeLength="30870.97" waitingTime="2165.00" waitingCount="337" stopTime="0.00" timeLoss="6853.73" rerouteNo="67" devices="tripinfo_carflow.53 routing_carflow.53" vType="car" speedFactor="1.10" vaporized=""/>
    <tripinfo id="carflow.77" depart="201.00" departLane="E0_0" departPos="5.10" departSpeed="0.00" departDelay="201.00" arrival="10065.00" arrivalLane="E1_1" arrivalPos="176.89" arrivalSpeed="7.04" duration="9864.00" routeLength="35712.02" waitingTime="1603.00" waitingCount="257" stopTime="0.00" timeLoss="6263.18" rerouteNo="78" devices="tripinfo_carflow.77 routing_carflow.77" vType="car" speedFactor="0.98" vaporized=""/>
    <tripinfo id="carflow.65" depart="144.00" departLane="E0_0" departPos="5.10" departSpeed="0.00" departDelay="144.00" arrival="10066.00" arrivalLane="E0_2" arrivalPos="150.30" arrivalSpeed="9.50" duration="9922.00" routeLength="30868.10" waitingTime="2306.00" waitingCount="299" stopTime="0.00" timeLoss="6786.76" rerouteNo="67" devices="tripinfo_carflow.65 routing_carflow.65" vType="car" speedFactor="0.88" vaporized=""/>
    <tripinfo id="carflow.27" depart="54.00" departLane="E0_0" departPos="5.10" departSpeed="0.00" departDelay="54.00" arrival="10069.00" arrivalLane="E0_2" arrivalPos="150.30" arrivalSpeed="7.80" duration="10015.00" routeLength="32724.05" waitingTime="2046.00" waitingCount="290" stopTime="0.00" timeLoss="6710.93" rerouteNo="71" devices="tripinfo_carflow.27 routing_carflow.27" vType="car" speedFactor="0.95" vaporized=""/>
    <tripinfo id="carflow.98" depart="289.00" departLane="E0_0" departPos="5.10" departSpeed="0.00" departDelay="289.00" arrival="10069.00" arrivalLane="E1_1" arrivalPos="176.89" arrivalSpeed="8.29" duration="9780.00" routeLength="30147.14" waitingTime="2254.00" waitingCount="291" stopTime="0.00" timeLoss="6751.81" rerouteNo="66" devices="tripinfo_carflow.98 routing_carflow.98" vType="car" speedFactor="1.12" vaporized=""/>
    <tripinfo id="carflow.10" depart="21.00" departLane="E0_0" departPos="5.10" departSpeed="0.00" departDelay="21.00" arrival="10075.00" arrivalLane="E0_2" arrivalPos="150.30" arrivalSpeed="8.14" duration="10054.00" routeLength="33699.76" waitingTime="2245.00" waitingCount="273" stopTime="0.00" timeLoss="6670.53" rerouteNo="73" devices="tripinfo_carflow.10 routing_carflow.10" vType="car" speedFactor="1.09" vaporized=""/>
    <tripinfo id="carflow.4" depart="9.00" departLane="E0_0" departPos="5.10" departSpeed="0.00" departDelay="9.00" arrival="10076.00" arrivalLane="E1_1" arrivalPos="176.89" arrivalSpeed="9.28" duration="10067.00" routeLength="32020.38" waitingTime="2199.00" waitingCount="323" stopTime="0.00" timeLoss="6847.99" rerouteNo="70" devices="tripinfo_carflow.4 routing_carflow.4" vType="car" speedFactor="1.03" vaporized=""/>
    <tripinfo id="carflow.95" depart="279.00" departLane="E0_0" departPos="5.10" departSpeed="0.00" departDelay="279.00" arrival="10077.00" arrivalLane="E0_2" arrivalPos="150.30" arrivalSpeed="7.15" duration="9798.00" routeLength="31803.30" waitingTime="1980.00" waitingCount="311" stopTime="0.00" timeLoss="6601.96" rerouteNo="69" devices="tripinfo_carflow.95 routing_carflow.95" vType="car" speedFactor="1.06" vaporized=""/>
    <tripinfo id="carflow.2" depart="6.00" departLane="E0_0" departPos="5.10" departSpeed="0.00" departDelay="6.00" arrival="10080.00" arrivalLane="E0_2" arrivalPos="150.30" arrivalSpeed="9.92" duration="10074.00" routeLength="33691.06" waitingTime="2141.00" waitingCount="308" stopTime="0.00" timeLoss="6684.21" rerouteNo="73" devices="tripinfo_carflow.2 routing_carflow.2" vType="car" speedFactor="1.01" vaporized=""/>
    <tripinfo id="carflow.89" depart="254.00" departLane="E0_0" departPos="5.10" departSpeed="0.00" departDelay="254.00" arrival="10084.00" arrivalLane="E0_2" arrivalPos="150.30" arrivalSpeed="6.88" duration="9830.00" routeLength="34640.77" waitingTime="1585.00" waitingCount="259" stopTime="0.00" timeLoss="6345.49" rerouteNo="75" devices="tripinfo_carflow.89 routing_carflow.89" vType="car" speedFactor="1.02" vaporized=""/>
    <tripinfo id="carflow.0" depart="0.00" departLane="E0_0" departPos="5.10" departSpeed="0.00" departDelay="0.00" arrival="10085.00" arrivalLane="E1_1" arrivalPos="176.89" arrivalSpeed="9.88" duration="10085.00" routeLength="30147.11" waitingTime="2492.00" waitingCount="349" stopTime="0.00" timeLoss="7054.22" rerouteNo="66" devices="tripinfo_carflow.0 routing_carflow.0" vType="car" speedFactor="1.06" vaporized=""/>
    <tripinfo id="carflow.6" depart="15.00" departLane="E0_0" departPos="5.10" departSpeed="0.00" departDelay="15.00" arrival="10087.00" arrivalLane="E0_2" arrivalPos="150.30" arrivalSpeed="7.34" duration="10072.00" routeLength="34623.39" waitingTime="1962.00" waitingCount="306" stopTime="0.00" timeLoss="6591.23" rerouteNo="75" devices="tripinfo_carflow.6 routing_carflow.6" vType="car" speedFactor="1.05" vaporized=""/>
    <tripinfo id="carflow.15" depart="30.00" departLane="E0_0" departPos="5.10" departSpeed="0.00" departDelay="30.00" arrival="10089.00" arrivalLane="E0_2" arrivalPos="150.30" arrivalSpeed="7.51" duration="10059.00" routeLength="31811.99" waitingTime="2335.00" waitingCount="299" stopTime="0.00" timeLoss="6844.16" rerouteNo="69" devices="tripinfo_carflow.15 routing_carflow.15" vType="car" speedFactor="0.93" vaporized=""/>
    <tripinfo id="carflow.16" depart="31.00" departLane="E0_0" departPos="5.10" departSpeed="0.00" departDelay="31.00" arrival="10092.00" arrivalLane="E0_2" arrivalPos="150.30" arrivalSpeed="9.74" duration="10061.00" routeLength="32712.47" waitingTime="2251.00" waitingCount="298" stopTime="0.00" timeLoss="6746.54" rerouteNo="71" devices="tripinfo_carflow.16 routing_carflow.16" vType="car" speedFactor="0.88" vaporized=""/>
    <tripinfo id="carflow.45" depart="92.00" departLane="E0_0" departPos="5.10" departSpeed="0.00" departDelay="92.00" arrival="10093.00" arrivalLane="E1_2" arrivalPos="176.89" arrivalSpeed="6.63" duration="10001.00" routeLength="32923.77" waitingTime="1987.00" waitingCount="331" stopTime="0.00" timeLoss="6693.97" rerouteNo="72" devices="tripinfo_carflow.45 routing_carflow.45" vType="car" speedFactor="1.09" vaporized=""/>
    <tripinfo id="carflow.56" depart="113.00" departLane="E0_0" departPos="5.10" departSpeed="0.00" departDelay="113.00" arrival="10094.00" arrivalLane="E1_1" arrivalPos="176.89" arrivalSpeed="6.89" duration="9981.00" routeLength="29180.05" waitingTime="2576.00" waitingCount="293" stopTime="0.00" timeLoss="7025.31" rerouteNo="64" devices="tripinfo_carflow.56 routing_carflow.56" vType="car" speedFactor="0.90" vaporized=""/>
    <tripinfo id="carflow.11" depart="22.00" departLane="E0_0" departPos="5.10" departSpeed="0.00" departDelay="22.00" arrival="10096.00" arrivalLane="E1_2" arrivalPos="176.89" arrivalSpeed="9.52" duration="10074.00" routeLength="34773.96" waitingTime="1828.00" waitingCount="319" stopTime="0.00" timeLoss="6572.85" rerouteNo="76" devices="tripinfo_carflow.11 routing_carflow.11" vType="car" speedFactor="1.03" vaporized=""/>
    <tripinfo id="carflow.63" depart="135.00" departLane="E0_0" departPos="5.10" departSpeed="0.00" departDelay="135.00" arrival="10096.00" arrivalLane="E0_2" arrivalPos="150.30" arrivalSpeed="7.79" duration="9961.00" routeLength="29947.35" waitingTime="2567.00" waitingCount="298" stopTime="0.00" timeLoss="6943.72" rerouteNo="65" devices="tripinfo_carflow.63 routing_carflow.63" vType="car" speedFactor="0.99" vaporized=""/>
    <tripinfo id="carflow.94" depart="272.00" departLane="E0_0" departPos="5.10" departSpeed="0.00" departDelay="272.00" arrival="10098.00" arrivalLane="E0_2" arrivalPos="150.30" arrivalSpeed="9.08" duration="9826.00" routeLength="29958.94" waitingTime="2353.00" waitingCount="308" stopTime="0.00" timeLoss="6814.91" rerouteNo="65" devices="tripinfo_carflow.94 routing_carflow.94" vType="car" speedFactor="1.09" vaporized=""/>
    <tripinfo id="carflow.37" depart="75.00" departLane="E0_0" departPos="5.10" departSpeed="0.00" departDelay="75.00" arrival="10099.00" arrivalLane="E1_1" arrivalPos="176.89" arrivalSpeed="9.84" duration="10024.00" routeLength="30129.73" waitingTime="2386.00" waitingCount="402" stopTime="0.00" timeLoss="6997.59" rerouteNo="66" devices="tripinfo_carflow.37 routing_carflow.37" vType="car" speedFactor="1.18" vaporized=""/>
    <tripinfo id="carflow.52" depart="105.00" departLane="E0_0" departPos="5.10" departSpeed="0.00" departDelay="105.00" arrival="10099.00" arrivalLane="E0_0" arrivalPos="150.30" arrivalSpeed="8.79" duration="9994.00" routeLength="30899.94" waitingTime="2135.00" waitingCount="355" stopTime="0.00" timeLoss="6885.61" rerouteNo="67" devices="tripinfo_carflow.52 routing_carflow.52" vType="car" speedFactor="1.02" vaporized=""/>
    <tripinfo id="carflow.72" depart="178.00" departLane="E0_0" departPos="5.10" departSpeed="0.00" departDelay="178.00" arrival="10102.00" arrivalLane="E1_0" arrivalPos="176.89" arrivalSpeed="7.96" duration="9924.00" routeLength="27324.11" waitingTime="2785.00" waitingCount="346" stopTime="0.00" timeLoss="7161.85" rerouteNo="60" devices="tripinfo_carflow.72 routing_carflow.72" vType="car" speedFactor="0.94" vaporized=""/>
    <tripinfo id="carflow.75" depart="193.00" departLane="E0_0" departPos="5.10" departSpeed="0.00" departDelay="193.00" arrival="10102.00" arrivalLane="E0_0" arrivalPos="150.30" arrivalSpeed="9.93" duration="9909.00" routeLength="30891.27" waitingTime="2263.00" waitingCount="302" stopTime="0.00" timeLoss="6795.32" rerouteNo="67" devices="tripinfo_carflow.75 routing_carflow.75" vType="car" speedFactor="0.98" vaporized=""/>
    <tripinfo id="carflow.76" depart="196.00" departLane="E0_0" departPos="5.10" departSpeed="0.00" departDelay="196.00" arrival="10102.00" arrivalLane="E0_2" arrivalPos="150.30" arrivalSpeed="9.70" duration="9906.00" routeLength="31812.00" waitingTime="2176.00" waitingCount="298" stopTime="0.00" timeLoss="6704.33" rerouteNo="69" devices="tripinfo_carflow.76 routing_carflow.76" vType="car" speedFactor="1.03" vaporized=""/>
    <tripinfo id="carflow.51" depart="103.00" departLane="E0_0" departPos="5.10" departSpeed="0.00" departDelay="103.00" arrival="10104.00" arrivalLane="E1_0" arrivalPos="176.89" arrivalSpeed="8.62" duration="10001.00" routeLength="33876.36" waitingTime="1891.00" waitingCount="296" stopTime="0.00" timeLoss="6599.00" rerouteNo="74" devices="tripinfo_carflow.51 routing_carflow.51" vType="car" speedFactor="1.17" vaporized=""/>
    <tripinfo id="carflow.79" depart="210.00" departLane="E0_0" departPos="5.10" departSpeed="0.00" departDelay="210.00" arrival="10104.00" arrivalLane="E0_1" arrivalPos="150.30" arrivalSpeed="9.58" duration="9894.00" routeLength="30865.22" waitingTime="2204.00" waitingCount="310" stopTime="0.00" timeLoss="6789.37" rerouteNo="67" devices="tripinfo_carflow.79 routing_carflow.79" vType="car" speedFactor="1.09" vaporized=""/>
    <tripinfo id="carflow.19" depart="37.00" departLane="E0_0" departPos="5.10" departSpeed="0.00" departDelay="37.00" arrival="10105.00" arrivalLane="E0_2" arrivalPos="150.30" arrivalSpeed="8.00" duration="10068.00" routeLength="29055.58" waitingTime="2601.00" waitingCount="358" stopTime="0.00" timeLoss="7152.41" rerouteNo="63" devices="tripinfo_carflow.19 routing_carflow.19" vType="car" speedFactor="1.16" vaporized=""/>
    <tripinfo id="carflow.33" depart="64.00" departLane="E0_0" departPos="5.10" departSpeed="0.00" departDelay="64.00" arrival="10105.00" arrivalLane="E0_0" arrivalPos="150.30" arrivalSpeed="7.85" duration="10041.00" routeLength="32761.67" waitingTime="1953.00" waitingCount="355" stopTime="0.00" timeLoss="6755.10" rerouteNo="71" devices="tripinfo_carflow.33 routing_carflow.33" vType="car" speedFactor="1.17" vaporized=""/>
    <tripinfo id="carflow.58" depart="123.00" departLane="E0_0" departPos="5.10" departSpeed="0.00" departDelay="123.00" arrival="10105.00" arrivalLane="E1_1" arrivalPos="176.89" arrivalSpeed="9.82" duration="9982.00" routeLength="30118.16" waitingTime="2400.00" waitingCount="360" stopTime="0.00" timeLoss="6952.81" rerouteNo="66" devices="tripinfo_carflow.58 routing_carflow.58" vType="car" speedFactor="1.02" vaporized=""/>
    <tripinfo id="carflow.59" depart="125.00" departLane="E0_0" departPos="5.10" departSpeed="0.00" departDelay="125.00" arrival="10107.00" arrivalLane="E1_2" arrivalPos="176.89" arrivalSpeed="6.52" duration="9982.00" routeLength="32920.89" waitingTime="2138.00" waitingCount="317" stopTime="0.00" timeLoss="6661.12" rerouteNo="72" devices="tripinfo_carflow.59 routing_carflow.59" vType="car" speedFactor="0.97" vaporized=""/>
    <tripinfo id="carflow.39" depart="78.00" departLane="E0_0" departPos="5.10" departSpeed="0.00" departDelay="78.00" arrival="10108.00" arrivalLane="E1_1" arrivalPos="176.89" arrivalSpeed="8.86" duration="10030.00" routeLength="28256.42" waitingTime="2516.00" waitingCount="313" stopTime="0.00" timeLoss="7169.82" rerouteNo="62" devices="tripinfo_carflow.39 routing_carflow.39" vType="car" speedFactor="0.90" vaporized=""/>
    <tripinfo id="carflow.96" depart="280.00" departLane="E0_0" departPos="5.10" departSpeed="0.00" departDelay="280.00" arrival="10109.00" arrivalLane="E0_0" arrivalPos="150.30" arrivalSpeed="7.72" duration="9829.00" routeLength="31800.42" waitingTime="2024.00" waitingCount="313" stopTime="0.00" timeLoss="6627.91" rerouteNo="69" devices="tripinfo_carflow.96 routing_carflow.96" vType="car" speedFactor="1.01" vaporized=""/>
    <tripinfo id="carflow.86" depart="242.00" departLane="E0_0" departPos="5.10" departSpeed="0.00" departDelay="242.00" arrival="10110.00" arrivalLane="E1_0" arrivalPos="176.89" arrivalSpeed="9.88" duration="9868.00" routeLength="27341.48" waitingTime="2714.00" waitingCount="331" stopTime="0.00" timeLoss="7111.32" rerouteNo="60" devices="tripinfo_carflow.86 routing_carflow.86" vType="car" speedFactor="1.00" vaporized=""/>
    <tripinfo id="carflow.78" depart="206.00" departLane="E0_0" departPos="5.10" departSpeed="0.00" departDelay="206.00" arrival="10111.00" arrivalLane="E1_2" arrivalPos="176.89" arrivalSpeed="8.51" duration="9905.00" routeLength="28273.79" waitingTime="2525.00" waitingCount="339" stopTime="0.00" timeLoss="7056.87" rerouteNo="62" devices="tripinfo_carflow.78 routing_carflow.78" vType="car" speedFactor="1.01" vaporized=""/>
    <tripinfo id="carflow.83" depart="223.00" departLane="E0_0" departPos="5.10" departSpeed="0.00" departDelay="223.00" arrival="10111.00" arrivalLane="E0_2" arrivalPos="150.30" arrivalSpeed="8.69" duration="9888.00" routeLength="32729.85" waitingTime="1952.00" waitingCount="288" stopTime="0.00" timeLoss="6586.33" rerouteNo="71" devices="tripinfo_carflow.83 routing_carflow.83" vType="car" speedFactor="0.97" vaporized=""/>
    <tripinfo id="carflow.3" depart="7.00" departLane="E0_0" departPos="5.10" departSpeed="0.00" departDelay="7.00" arrival="10112.00" arrivalLane="E0_0" arrivalPos="150.30" arrivalSpeed="8.96" duration="10105.00" routeLength="31811.98" waitingTime="2161.00" waitingCount="363" stopTime="0.00" timeLoss="6905.90" rerouteNo="69" devices="tripinfo_carflow.3 routing_carflow.3" vType="car" speedFactor="1.08" vaporized=""/>
    <tripinfo id="carflow.5" depart="11.00" departLane="E0_0" departPos="5.10" departSpeed="0.00" departDelay="11.00" arrival="10114.00" arrivalLane="E0_2" arrivalPos="150.30" arrivalSpeed="7.91" duration="10103.00" routeLength="35503.65" waitingTime="1802.00" waitingCount="326" stopTime="0.00" timeLoss="6481.37" rerouteNo="77" devices="tripinfo_carflow.5 routing_carflow.5" vType="car" speedFactor="0.83" vaporized=""/>
    <tripinfo id="carflow.44" depart="90.00" departLane="E0_0" departPos="5.10" departSpeed="0.00" departDelay="90.00" arrival="10114.00" arrivalLane="E1_0" arrivalPos="176.89" arrivalSpeed="8.84" duration="10024.00" routeLength="32961.41" waitingTime="2084.00" waitingCount="331" stopTime="0.00" timeLoss="6710.65" rerouteNo="72" devices="tripinfo_carflow.44 routing_carflow.44" vType="car" speedFactor="1.04" vaporized=""/>
    <tripinfo id="carflow.17" depart="33.00" departLane="E0_0" departPos="5.10" departSpeed="0.00" departDelay="33.00" arrival="10115.00" arrivalLane="E0_0" arrivalPos="150.30" arrivalSpeed="6.71" duration="10082.00" routeLength="35529.66" waitingTime="1576.00" waitingCount="310" stopTime="0.00" timeLoss="6496.46" rerouteNo="77" devices="tripinfo_carflow.17 routing_carflow.17" vType="car" speedFactor="0.94" vaporized=""/>
    <tripinfo id="carflow.69" depart="165.00" departLane="E0_0" departPos="5.10" departSpeed="0.00" departDelay="165.00" arrival="10116.00" arrivalLane="E0_1" arrivalPos="150.30" arrivalSpeed="7.19" duration="9951.00" routeLength="32744.32" waitingTime="2070.00" waitingCount="324" stopTime="0.00" timeLoss="6654.66" rerouteNo="71" devices="tripinfo_carflow.69 routing_carflow.69" vType="car" speedFactor="1.02" vaporized=""/>
    <tripinfo id="carflow.32" depart="62.00" departLane="E0_0" departPos="5.10" departSpeed="0.00" departDelay="62.00" arrival="10117.00" arrivalLane="E0_0" arrivalPos="150.30" arrivalSpeed="7.38" duration="10055.00" routeLength="32744.30" waitingTime="2015.00" waitingCount="341" stopTime="0.00" timeLoss="6756.36" rerouteNo="71" devices="tripinfo_carflow.32 routing_carflow.32" vType="car" speedFactor="1.01" vaporized=""/>
    <tripinfo id="carflow.54" depart="107.00" departLane="E0_0" departPos="5.10" departSpeed="0.00" departDelay="107.00" arrival="10117.00" arrivalLane="E0_2" arrivalPos="150.30" arrivalSpeed="8.93" duration="10010.00" routeLength="30879.67" waitingTime="2264.00" waitingCount="310" stopTime="0.00" timeLoss="6899.11" rerouteNo="67" devices="tripinfo_carflow.54 routing_carflow.54" vType="car" speedFactor="1.00" vaporized=""/>
    <tripinfo id="carflow.12" depart="23.00" departLane="E0_0" departPos="5.10" departSpeed="0.00" departDelay="23.00" arrival="10118.00" arrivalLane="E1_0" arrivalPos="176.89" arrivalSpeed="9.53" duration="10095.00" routeLength="34776.83" waitingTime="1776.00" waitingCount="298" stopTime="0.00" timeLoss="6598.09" rerouteNo="76" devices="tripinfo_carflow.12 routing_carflow.12" vType="car" speedFactor="1.05" vaporized=""/>
    <tripinfo id="carflow.48" depart="98.00" departLane="E0_0" departPos="5.10" departSpeed="0.00" departDelay="98.00" arrival="10120.00" arrivalLane="E0_2" arrivalPos="150.30" arrivalSpeed="8.44" duration="10022.00" routeLength="31794.63" waitingTime="2312.00" waitingCount="286" stopTime="0.00" timeLoss="6795.60" rerouteNo="69" devices="tripinfo_carflow.48 routing_carflow.48" vType="car" speedFactor="0.88" vaporized=""/>
    <tripinfo id="carflow.21" depart="41.00" departLane="E0_0" departPos="5.10" departSpeed="0.00" departDelay="41.00" arrival="10121.00" arrivalLane="E1_1" arrivalPos="176.89" arrivalSpeed="9.58" duration="10080.00" routeLength="31053.36" waitingTime="2340.00" waitingCount="354" stopTime="0.00" timeLoss="6951.80" rerouteNo="68" devices="tripinfo_carflow.21 routing_carflow.21" vType="car" speedFactor="1.01" vaporized=""/>
    <tripinfo id="carflow.62" depart="132.00" departLane="E0_0" departPos="5.10" departSpeed="0.00" departDelay="132.00" arrival="10122.00" arrivalLane="E0_1" arrivalPos="150.30" arrivalSpeed="9.96" duration="9990.00" routeLength="33688.17" waitingTime="2040.00" waitingCount="270" stopTime="0.00" timeLoss="6600.35" rerouteNo="73" devices="tripinfo_carflow.62 routing_carflow.62" vType="car" speedFactor="1.02" vaporized=""/>
    <tripinfo id="carflow.24" depart="47.00" departLane="E0_0" departPos="5.10" departSpeed="0.00" departDelay="47.00" arrival="10123.00" arrivalLane="E0_2" arrivalPos="150.30" arrivalSpeed="7.46" duration="10076.00" routeLength="30876.76" waitingTime="2369.00" waitingCount="298" stopTime="0.00" timeLoss="6928.33" rerouteNo="67" devices="tripinfo_carflow.24 routing_carflow.24" vType="car" speedFactor="0.83" vaporized=""/>
    <tripinfo id="carflow.31" depart="61.00" departLane="E0_0" departPos="5.10" departSpeed="0.00" departDelay="61.00" arrival="10123.00" arrivalLane="E1_0" arrivalPos="176.89" arrivalSpeed="9.54" duration="10062.00" routeLength="35732.29" waitingTime="1872.00" waitingCount="272" stopTime="0.00" timeLoss="6476.53" rerouteNo="78" devices="tripinfo_carflow.31 routing_carflow.31" vType="car" speedFactor="1.15" vaporized=""/>
    <tripinfo id="carflow.46" depart="94.00" departLane="E0_0" departPos="5.10" departSpeed="0.00" departDelay="94.00" arrival="10126.00" arrivalLane="E0_2" arrivalPos="150.30" arrivalSpeed="7.11" duration="10032.00" routeLength="31803.30" waitingTime="2134.00" waitingCount="331" stopTime="0.00" timeLoss="6830.40" rerouteNo="69" devices="tripinfo_carflow.46 routing_carflow.46" vType="car" speedFactor="1.00" vaporized=""/>